/*--------------------------------*- C++ -*----------------------------------*\
  =========                 |
  \\      /  F ield         | OpenFOAM: The Open Source CFD Toolbox
   \\    /   O peration     | Website:  https://openfoam.org
    \\  /    A nd           | Version:  9
     \\/     M anipulation  |
\*---------------------------------------------------------------------------*/
FoamFile
{
    format      ascii;
    class       volVectorField;
    object      U;
}
// * * * * * * * * * * * * * * * * * * * * * * * * * * * * * * * * * * * * * //

dimensions      [0 1 -1 0 0 0 0];

internalField   uniform (0.0937312 0 0);

boundaryField
{
    axis
    {
        type 		empty;
    }

    inlet
    {
        type            fixedvalue;
        value		uniform(0.0937312 0 0);
    }

    outlet
    {
        type            zeroGradient;
    }
    top
    {
    	type 		fixedvalue;
    	value		uniform(0 0 0);
    }
    wedgeFront
    {
    	type 		wedge;
    }
    wedgeback
    {
    	type 		wedge;
    }
}

// ************************************************************************* //
